TITLE = "Nozzle Design" 
 VARIABLES = x, y 
ZONE I = 565, J = 42, DATAPACKING = POINT 
DT = (DOUBLE, DOUBLE) 
0.0000000000000000e+00, 	 0.0000000000000000e+00   
2.4999999999999998e-02, 	 0.0000000000000000e+00   
4.9999999999999996e-02, 	 0.0000000000000000e+00   
7.4999999999999997e-02, 	 0.0000000000000000e+00   
9.9999999999999992e-02, 	 0.0000000000000000e+00   
1.2500000000000000e-01, 	 0.0000000000000000e+00   
1.4999999999999999e-01, 	 0.0000000000000000e+00   
1.7500000000000002e-01, 	 0.0000000000000000e+00   
1.9999999999999998e-01, 	 0.0000000000000000e+00   
2.2499999999999998e-01, 	 0.0000000000000000e+00   
2.5000000000000000e-01, 	 0.0000000000000000e+00   
2.7499999999999997e-01, 	 0.0000000000000000e+00   
2.9999999999999999e-01, 	 0.0000000000000000e+00   
3.2499999999999996e-01, 	 0.0000000000000000e+00   
3.5000000000000003e-01, 	 0.0000000000000000e+00   
3.7500000000000000e-01, 	 0.0000000000000000e+00   
3.9999999999999997e-01, 	 0.0000000000000000e+00   
4.2499999999999999e-01, 	 0.0000000000000000e+00   
4.4999999999999996e-01, 	 0.0000000000000000e+00   
4.7499999999999998e-01, 	 0.0000000000000000e+00   
5.0000000000000000e-01, 	 0.0000000000000000e+00   
5.2499999999999991e-01, 	 0.0000000000000000e+00   
5.4999999999999993e-01, 	 0.0000000000000000e+00   
5.7500000000000007e-01, 	 0.0000000000000000e+00   
5.9999999999999998e-01, 	 0.0000000000000000e+00   
6.2500000000000000e-01, 	 0.0000000000000000e+00   
6.4999999999999991e-01, 	 0.0000000000000000e+00   
6.7499999999999993e-01, 	 0.0000000000000000e+00   
7.0000000000000007e-01, 	 0.0000000000000000e+00   
7.2499999999999998e-01, 	 0.0000000000000000e+00   
7.5000000000000000e-01, 	 0.0000000000000000e+00   
7.7499999999999991e-01, 	 0.0000000000000000e+00   
7.9999999999999993e-01, 	 0.0000000000000000e+00   
8.2500000000000007e-01, 	 0.0000000000000000e+00   
8.4999999999999998e-01, 	 0.0000000000000000e+00   
8.7500000000000000e-01, 	 0.0000000000000000e+00   
8.9999999999999991e-01, 	 0.0000000000000000e+00   
9.2499999999999993e-01, 	 0.0000000000000000e+00   
9.4999999999999996e-01, 	 0.0000000000000000e+00   
9.7499999999999998e-01, 	 0.0000000000000000e+00   
1.0000000000000000e+00, 	 0.0000000000000000e+00   
1.0250000000000001e+00, 	 0.0000000000000000e+00   
1.0499999999999998e+00, 	 0.0000000000000000e+00   
1.0750000000000000e+00, 	 0.0000000000000000e+00   
1.0999999999999999e+00, 	 0.0000000000000000e+00   
1.1250000000000000e+00, 	 0.0000000000000000e+00   
1.1500000000000001e+00, 	 0.0000000000000000e+00   
1.1749999999999998e+00, 	 0.0000000000000000e+00   
1.2000000000000000e+00, 	 0.0000000000000000e+00   
1.2249999999999999e+00, 	 0.0000000000000000e+00   
1.2500000000000000e+00, 	 0.0000000000000000e+00   
1.2750000000000001e+00, 	 0.0000000000000000e+00   
1.2999999999999998e+00, 	 0.0000000000000000e+00   
1.3250000000000000e+00, 	 0.0000000000000000e+00   
1.3499999999999999e+00, 	 0.0000000000000000e+00   
1.3750000000000000e+00, 	 0.0000000000000000e+00   
1.4000000000000001e+00, 	 0.0000000000000000e+00   
1.4249999999999998e+00, 	 0.0000000000000000e+00   
1.4500000000000000e+00, 	 0.0000000000000000e+00   
1.4749999999999999e+00, 	 0.0000000000000000e+00   
1.5000000000000000e+00, 	 0.0000000000000000e+00   
1.5250000000000001e+00, 	 0.0000000000000000e+00   
1.5499999999999998e+00, 	 0.0000000000000000e+00   
1.5750000000000000e+00, 	 0.0000000000000000e+00   
1.5999999999999999e+00, 	 0.0000000000000000e+00   
1.6250000000000000e+00, 	 0.0000000000000000e+00   
1.6500000000000001e+00, 	 0.0000000000000000e+00   
1.6749999999999998e+00, 	 0.0000000000000000e+00   
1.7000000000000000e+00, 	 0.0000000000000000e+00   
1.7249999999999999e+00, 	 0.0000000000000000e+00   
1.7500000000000000e+00, 	 0.0000000000000000e+00   
1.7750000000000001e+00, 	 0.0000000000000000e+00   
1.7999999999999998e+00, 	 0.0000000000000000e+00   
1.8250000000000000e+00, 	 0.0000000000000000e+00   
1.8499999999999999e+00, 	 0.0000000000000000e+00   
1.8750000000000000e+00, 	 0.0000000000000000e+00   
1.8999999999999999e+00, 	 0.0000000000000000e+00   
1.9250000000000000e+00, 	 0.0000000000000000e+00   
1.9500000000000000e+00, 	 0.0000000000000000e+00   
1.9749999999999999e+00, 	 0.0000000000000000e+00   
2.0000000000000000e+00, 	 0.0000000000000000e+00   
2.0249999999999999e+00, 	 0.0000000000000000e+00   
2.0500000000000003e+00, 	 0.0000000000000000e+00   
2.0749999999999997e+00, 	 0.0000000000000000e+00   
2.0999999999999996e+00, 	 0.0000000000000000e+00   
2.1250000000000000e+00, 	 0.0000000000000000e+00   
2.1499999999999999e+00, 	 0.0000000000000000e+00   
2.1750000000000003e+00, 	 0.0000000000000000e+00   
2.1999999999999997e+00, 	 0.0000000000000000e+00   
2.2249999999999996e+00, 	 0.0000000000000000e+00   
2.2500000000000000e+00, 	 0.0000000000000000e+00   
2.2749999999999999e+00, 	 0.0000000000000000e+00   
2.3000000000000003e+00, 	 0.0000000000000000e+00   
2.3249999999999997e+00, 	 0.0000000000000000e+00   
2.3499999999999996e+00, 	 0.0000000000000000e+00   
2.3750000000000000e+00, 	 0.0000000000000000e+00   
2.3999999999999999e+00, 	 0.0000000000000000e+00   
2.4250000000000003e+00, 	 0.0000000000000000e+00   
2.4499999999999997e+00, 	 0.0000000000000000e+00   
2.4749999999999996e+00, 	 0.0000000000000000e+00   
2.5000000000000000e+00, 	 0.0000000000000000e+00   
2.5249999999999999e+00, 	 0.0000000000000000e+00   
2.5500000000000003e+00, 	 0.0000000000000000e+00   
2.5749999999999997e+00, 	 0.0000000000000000e+00   
2.5999999999999996e+00, 	 0.0000000000000000e+00   
2.6250000000000000e+00, 	 0.0000000000000000e+00   
2.6499999999999999e+00, 	 0.0000000000000000e+00   
2.6750000000000003e+00, 	 0.0000000000000000e+00   
2.6999999999999997e+00, 	 0.0000000000000000e+00   
2.7249999999999996e+00, 	 0.0000000000000000e+00   
2.7500000000000000e+00, 	 0.0000000000000000e+00   
2.7749999999999999e+00, 	 0.0000000000000000e+00   
2.8000000000000003e+00, 	 0.0000000000000000e+00   
2.8249999999999997e+00, 	 0.0000000000000000e+00   
2.8499999999999996e+00, 	 0.0000000000000000e+00   
2.8750000000000000e+00, 	 0.0000000000000000e+00   
2.8999999999999999e+00, 	 0.0000000000000000e+00   
2.9250000000000003e+00, 	 0.0000000000000000e+00   
2.9499999999999997e+00, 	 0.0000000000000000e+00   
2.9749999999999996e+00, 	 0.0000000000000000e+00   
3.0000000000000000e+00, 	 0.0000000000000000e+00   
3.0249999999999999e+00, 	 0.0000000000000000e+00   
3.0500000000000003e+00, 	 0.0000000000000000e+00   
3.0749999999999997e+00, 	 0.0000000000000000e+00   
3.0999999999999996e+00, 	 0.0000000000000000e+00   
3.1250000000000000e+00, 	 0.0000000000000000e+00   
3.1499999999999999e+00, 	 0.0000000000000000e+00   
3.1750000000000003e+00, 	 0.0000000000000000e+00   
3.1999999999999997e+00, 	 0.0000000000000000e+00   
3.2249999999999996e+00, 	 0.0000000000000000e+00   
3.2500000000000000e+00, 	 0.0000000000000000e+00   
3.2749999999999999e+00, 	 0.0000000000000000e+00   
3.3000000000000003e+00, 	 0.0000000000000000e+00   
3.3249999999999997e+00, 	 0.0000000000000000e+00   
3.3499999999999996e+00, 	 0.0000000000000000e+00   
3.3750000000000000e+00, 	 0.0000000000000000e+00   
3.3999999999999999e+00, 	 0.0000000000000000e+00   
3.4250000000000003e+00, 	 0.0000000000000000e+00   
3.4499999999999997e+00, 	 0.0000000000000000e+00   
3.4749999999999996e+00, 	 0.0000000000000000e+00   
3.5000000000000000e+00, 	 0.0000000000000000e+00   
3.5249999999999999e+00, 	 0.0000000000000000e+00   
3.5500000000000003e+00, 	 0.0000000000000000e+00   
3.5749999999999997e+00, 	 0.0000000000000000e+00   
3.5999999999999996e+00, 	 0.0000000000000000e+00   
3.6250000000000000e+00, 	 0.0000000000000000e+00   
3.6499999999999999e+00, 	 0.0000000000000000e+00   
3.6749999999999998e+00, 	 0.0000000000000000e+00   
3.6999999999999997e+00, 	 0.0000000000000000e+00   
3.7250000000000001e+00, 	 0.0000000000000000e+00   
3.7500000000000000e+00, 	 0.0000000000000000e+00   
3.7749999999999999e+00, 	 0.0000000000000000e+00   
3.7999999999999998e+00, 	 0.0000000000000000e+00   
3.8249999999999997e+00, 	 0.0000000000000000e+00   
3.8500000000000001e+00, 	 0.0000000000000000e+00   
3.8750000000000000e+00, 	 0.0000000000000000e+00   
3.8999999999999999e+00, 	 0.0000000000000000e+00   
3.9249999999999998e+00, 	 0.0000000000000000e+00   
3.9499999999999997e+00, 	 0.0000000000000000e+00   
3.9750000000000001e+00, 	 0.0000000000000000e+00   
4.0000000000000000e+00, 	 0.0000000000000000e+00   
4.0249999999999995e+00, 	 0.0000000000000000e+00   
4.0499999999999998e+00, 	 0.0000000000000000e+00   
4.0749999999999993e+00, 	 0.0000000000000000e+00   
4.1000000000000005e+00, 	 0.0000000000000000e+00   
4.1250000000000000e+00, 	 0.0000000000000000e+00   
4.1499999999999995e+00, 	 0.0000000000000000e+00   
4.1749999999999998e+00, 	 0.0000000000000000e+00   
4.1999999999999993e+00, 	 0.0000000000000000e+00   
4.2250000000000005e+00, 	 0.0000000000000000e+00   
4.2500000000000000e+00, 	 0.0000000000000000e+00   
4.2749999999999995e+00, 	 0.0000000000000000e+00   
4.2999999999999998e+00, 	 0.0000000000000000e+00   
4.3249999999999993e+00, 	 0.0000000000000000e+00   
4.3500000000000005e+00, 	 0.0000000000000000e+00   
4.3750000000000000e+00, 	 0.0000000000000000e+00   
4.3999999999999995e+00, 	 0.0000000000000000e+00   
4.4249999999999998e+00, 	 0.0000000000000000e+00   
4.4499999999999993e+00, 	 0.0000000000000000e+00   
4.4750000000000005e+00, 	 0.0000000000000000e+00   
4.5000000000000000e+00, 	 0.0000000000000000e+00   
4.5249999999999995e+00, 	 0.0000000000000000e+00   
4.5499999999999998e+00, 	 0.0000000000000000e+00   
4.5749999999999993e+00, 	 0.0000000000000000e+00   
4.6000000000000005e+00, 	 0.0000000000000000e+00   
4.6250000000000000e+00, 	 0.0000000000000000e+00   
4.6499999999999995e+00, 	 0.0000000000000000e+00   
4.6749999999999998e+00, 	 0.0000000000000000e+00   
4.6999999999999993e+00, 	 0.0000000000000000e+00   
4.7250000000000005e+00, 	 0.0000000000000000e+00   
4.7500000000000000e+00, 	 0.0000000000000000e+00   
4.7749999999999995e+00, 	 0.0000000000000000e+00   
4.7999999999999998e+00, 	 0.0000000000000000e+00   
4.8249999999999993e+00, 	 0.0000000000000000e+00   
4.8500000000000005e+00, 	 0.0000000000000000e+00   
4.8750000000000000e+00, 	 0.0000000000000000e+00   
4.8999999999999995e+00, 	 0.0000000000000000e+00   
4.9249999999999998e+00, 	 0.0000000000000000e+00   
4.9499999999999993e+00, 	 0.0000000000000000e+00   
4.9750000000000005e+00, 	 0.0000000000000000e+00   
5.0000000000000000e+00, 	 0.0000000000000000e+00   
5.0249999999999995e+00, 	 0.0000000000000000e+00   
5.0499999999999998e+00, 	 0.0000000000000000e+00   
5.0749999999999993e+00, 	 0.0000000000000000e+00   
5.1000000000000005e+00, 	 0.0000000000000000e+00   
5.1250000000000000e+00, 	 0.0000000000000000e+00   
5.1499999999999995e+00, 	 0.0000000000000000e+00   
5.1749999999999998e+00, 	 0.0000000000000000e+00   
5.1999999999999993e+00, 	 0.0000000000000000e+00   
5.2250000000000005e+00, 	 0.0000000000000000e+00   
5.2500000000000000e+00, 	 0.0000000000000000e+00   
5.2749999999999995e+00, 	 0.0000000000000000e+00   
5.2999999999999998e+00, 	 0.0000000000000000e+00   
5.3249999999999993e+00, 	 0.0000000000000000e+00   
5.3500000000000005e+00, 	 0.0000000000000000e+00   
5.3750000000000000e+00, 	 0.0000000000000000e+00   
5.3999999999999995e+00, 	 0.0000000000000000e+00   
5.4249999999999998e+00, 	 0.0000000000000000e+00   
5.4499999999999993e+00, 	 0.0000000000000000e+00   
5.4750000000000005e+00, 	 0.0000000000000000e+00   
5.5000000000000000e+00, 	 0.0000000000000000e+00   
5.5249999999999995e+00, 	 0.0000000000000000e+00   
5.5499999999999998e+00, 	 0.0000000000000000e+00   
5.5749999999999993e+00, 	 0.0000000000000000e+00   
5.6000000000000005e+00, 	 0.0000000000000000e+00   
5.6250000000000000e+00, 	 0.0000000000000000e+00   
5.6499999999999995e+00, 	 0.0000000000000000e+00   
5.6749999999999998e+00, 	 0.0000000000000000e+00   
5.6999999999999993e+00, 	 0.0000000000000000e+00   
5.7250000000000005e+00, 	 0.0000000000000000e+00   
5.7500000000000000e+00, 	 0.0000000000000000e+00   
5.7749999999999995e+00, 	 0.0000000000000000e+00   
5.7999999999999998e+00, 	 0.0000000000000000e+00   
5.8249999999999993e+00, 	 0.0000000000000000e+00   
5.8500000000000005e+00, 	 0.0000000000000000e+00   
5.8750000000000000e+00, 	 0.0000000000000000e+00   
5.8999999999999995e+00, 	 0.0000000000000000e+00   
5.9249999999999998e+00, 	 0.0000000000000000e+00   
5.9499999999999993e+00, 	 0.0000000000000000e+00   
5.9750000000000005e+00, 	 0.0000000000000000e+00   
6.0000000000000000e+00, 	 0.0000000000000000e+00   
6.0249999999999995e+00, 	 0.0000000000000000e+00   
6.0499999999999998e+00, 	 0.0000000000000000e+00   
6.0749999999999993e+00, 	 0.0000000000000000e+00   
6.1000000000000005e+00, 	 0.0000000000000000e+00   
6.1250000000000000e+00, 	 0.0000000000000000e+00   
6.1499999999999995e+00, 	 0.0000000000000000e+00   
6.1749999999999998e+00, 	 0.0000000000000000e+00   
6.1999999999999993e+00, 	 0.0000000000000000e+00   
6.2250000000000005e+00, 	 0.0000000000000000e+00   
6.2500000000000000e+00, 	 0.0000000000000000e+00   
6.2749999999999995e+00, 	 0.0000000000000000e+00   
6.2999999999999998e+00, 	 0.0000000000000000e+00   
6.3249999999999993e+00, 	 0.0000000000000000e+00   
6.3500000000000005e+00, 	 0.0000000000000000e+00   
6.3750000000000000e+00, 	 0.0000000000000000e+00   
6.3999999999999995e+00, 	 0.0000000000000000e+00   
6.4249999999999998e+00, 	 0.0000000000000000e+00   
6.4499999999999993e+00, 	 0.0000000000000000e+00   
6.4750000000000005e+00, 	 0.0000000000000000e+00   
6.5000000000000000e+00, 	 0.0000000000000000e+00   
6.5249999999999995e+00, 	 0.0000000000000000e+00   
6.5499999999999998e+00, 	 0.0000000000000000e+00   
6.5749999999999993e+00, 	 0.0000000000000000e+00   
6.6000000000000005e+00, 	 0.0000000000000000e+00   
6.6250000000000000e+00, 	 0.0000000000000000e+00   
6.6499999999999995e+00, 	 0.0000000000000000e+00   
6.6749999999999998e+00, 	 0.0000000000000000e+00   
6.6999999999999993e+00, 	 0.0000000000000000e+00   
6.7250000000000005e+00, 	 0.0000000000000000e+00   
6.7500000000000000e+00, 	 0.0000000000000000e+00   
6.7749999999999995e+00, 	 0.0000000000000000e+00   
6.7999999999999998e+00, 	 0.0000000000000000e+00   
6.8249999999999993e+00, 	 0.0000000000000000e+00   
6.8500000000000005e+00, 	 0.0000000000000000e+00   
6.8750000000000000e+00, 	 0.0000000000000000e+00   
6.8999999999999995e+00, 	 0.0000000000000000e+00   
6.9249999999999998e+00, 	 0.0000000000000000e+00   
6.9499999999999993e+00, 	 0.0000000000000000e+00   
6.9750000000000005e+00, 	 0.0000000000000000e+00   
7.0000000000000000e+00, 	 0.0000000000000000e+00   
7.0249999999999995e+00, 	 0.0000000000000000e+00   
7.0499999999999998e+00, 	 0.0000000000000000e+00   
7.0749999999999993e+00, 	 0.0000000000000000e+00   
7.1000000000000005e+00, 	 0.0000000000000000e+00   
7.1250000000000000e+00, 	 0.0000000000000000e+00   
7.1499999999999995e+00, 	 0.0000000000000000e+00   
7.1749999999999998e+00, 	 0.0000000000000000e+00   
7.1999999999999993e+00, 	 0.0000000000000000e+00   
7.2250000000000005e+00, 	 0.0000000000000000e+00   
7.2500000000000000e+00, 	 0.0000000000000000e+00   
7.2749999999999995e+00, 	 0.0000000000000000e+00   
7.2999999999999998e+00, 	 0.0000000000000000e+00   
7.3250000000000002e+00, 	 0.0000000000000000e+00   
7.3499999999999996e+00, 	 0.0000000000000000e+00   
7.3750000000000000e+00, 	 0.0000000000000000e+00   
7.3999999999999995e+00, 	 0.0000000000000000e+00   
7.4249999999999998e+00, 	 0.0000000000000000e+00   
7.4500000000000002e+00, 	 0.0000000000000000e+00   
7.4749999999999996e+00, 	 0.0000000000000000e+00   
7.5000000000000000e+00, 	 0.0000000000000000e+00   
7.5249999999999995e+00, 	 0.0000000000000000e+00   
7.5499999999999998e+00, 	 0.0000000000000000e+00   
7.5750000000000002e+00, 	 0.0000000000000000e+00   
7.5999999999999996e+00, 	 0.0000000000000000e+00   
7.6250000000000000e+00, 	 0.0000000000000000e+00   
7.6499999999999995e+00, 	 0.0000000000000000e+00   
7.6749999999999998e+00, 	 0.0000000000000000e+00   
7.7000000000000002e+00, 	 0.0000000000000000e+00   
7.7249999999999996e+00, 	 0.0000000000000000e+00   
7.7500000000000000e+00, 	 0.0000000000000000e+00   
7.7749999999999995e+00, 	 0.0000000000000000e+00   
7.7999999999999998e+00, 	 0.0000000000000000e+00   
7.8250000000000002e+00, 	 0.0000000000000000e+00   
7.8499999999999996e+00, 	 0.0000000000000000e+00   
7.8750000000000000e+00, 	 0.0000000000000000e+00   
7.8999999999999995e+00, 	 0.0000000000000000e+00   
7.9249999999999998e+00, 	 0.0000000000000000e+00   
7.9500000000000002e+00, 	 0.0000000000000000e+00   
7.9749999999999996e+00, 	 0.0000000000000000e+00   
8.0000000000000000e+00, 	 0.0000000000000000e+00   
8.0249999999999986e+00, 	 0.0000000000000000e+00   
8.0499999999999989e+00, 	 0.0000000000000000e+00   
8.0750000000000011e+00, 	 0.0000000000000000e+00   
8.0999999999999996e+00, 	 0.0000000000000000e+00   
8.1250000000000000e+00, 	 0.0000000000000000e+00   
8.1499999999999986e+00, 	 0.0000000000000000e+00   
8.1749999999999989e+00, 	 0.0000000000000000e+00   
8.2000000000000011e+00, 	 0.0000000000000000e+00   
8.2249999999999996e+00, 	 0.0000000000000000e+00   
8.2500000000000000e+00, 	 0.0000000000000000e+00   
8.2749999999999986e+00, 	 0.0000000000000000e+00   
8.2999999999999989e+00, 	 0.0000000000000000e+00   
8.3250000000000011e+00, 	 0.0000000000000000e+00   
8.3499999999999996e+00, 	 0.0000000000000000e+00   
8.3750000000000000e+00, 	 0.0000000000000000e+00   
8.3999999999999986e+00, 	 0.0000000000000000e+00   
8.4249999999999989e+00, 	 0.0000000000000000e+00   
8.4500000000000011e+00, 	 0.0000000000000000e+00   
8.4749999999999996e+00, 	 0.0000000000000000e+00   
8.5000000000000000e+00, 	 0.0000000000000000e+00   
8.5249999999999986e+00, 	 0.0000000000000000e+00   
8.5499999999999989e+00, 	 0.0000000000000000e+00   
8.5750000000000011e+00, 	 0.0000000000000000e+00   
8.5999999999999996e+00, 	 0.0000000000000000e+00   
8.6250000000000000e+00, 	 0.0000000000000000e+00   
8.6499999999999986e+00, 	 0.0000000000000000e+00   
8.6749999999999989e+00, 	 0.0000000000000000e+00   
8.7000000000000011e+00, 	 0.0000000000000000e+00   
8.7249999999999996e+00, 	 0.0000000000000000e+00   
8.7500000000000000e+00, 	 0.0000000000000000e+00   
8.7749999999999986e+00, 	 0.0000000000000000e+00   
8.7999999999999989e+00, 	 0.0000000000000000e+00   
8.8250000000000011e+00, 	 0.0000000000000000e+00   
8.8499999999999996e+00, 	 0.0000000000000000e+00   
8.8750000000000000e+00, 	 0.0000000000000000e+00   
8.8999999999999986e+00, 	 0.0000000000000000e+00   
8.9249999999999989e+00, 	 0.0000000000000000e+00   
8.9500000000000011e+00, 	 0.0000000000000000e+00   
8.9749999999999996e+00, 	 0.0000000000000000e+00   
9.0000000000000000e+00, 	 0.0000000000000000e+00   
9.0249999999999986e+00, 	 0.0000000000000000e+00   
9.0499999999999989e+00, 	 0.0000000000000000e+00   
9.0750000000000011e+00, 	 0.0000000000000000e+00   
9.0999999999999996e+00, 	 0.0000000000000000e+00   
9.1250000000000000e+00, 	 0.0000000000000000e+00   
9.1499999999999986e+00, 	 0.0000000000000000e+00   
9.1749999999999989e+00, 	 0.0000000000000000e+00   
9.2000000000000011e+00, 	 0.0000000000000000e+00   
9.2249999999999996e+00, 	 0.0000000000000000e+00   
9.2500000000000000e+00, 	 0.0000000000000000e+00   
9.2749999999999986e+00, 	 0.0000000000000000e+00   
9.2999999999999989e+00, 	 0.0000000000000000e+00   
9.3250000000000011e+00, 	 0.0000000000000000e+00   
9.3499999999999996e+00, 	 0.0000000000000000e+00   
9.3750000000000000e+00, 	 0.0000000000000000e+00   
9.3999999999999986e+00, 	 0.0000000000000000e+00   
9.4249999999999989e+00, 	 0.0000000000000000e+00   
9.4500000000000011e+00, 	 0.0000000000000000e+00   
9.4749999999999996e+00, 	 0.0000000000000000e+00   
9.5000000000000000e+00, 	 0.0000000000000000e+00   
9.5249999999999986e+00, 	 0.0000000000000000e+00   
9.5499999999999989e+00, 	 0.0000000000000000e+00   
9.5750000000000011e+00, 	 0.0000000000000000e+00   
9.5999999999999996e+00, 	 0.0000000000000000e+00   
9.6250000000000000e+00, 	 0.0000000000000000e+00   
9.6499999999999986e+00, 	 0.0000000000000000e+00   
9.6749999999999989e+00, 	 0.0000000000000000e+00   
9.7000000000000011e+00, 	 0.0000000000000000e+00   
9.7249999999999996e+00, 	 0.0000000000000000e+00   
9.7500000000000000e+00, 	 0.0000000000000000e+00   
9.7749999999999986e+00, 	 0.0000000000000000e+00   
9.7999999999999989e+00, 	 0.0000000000000000e+00   
9.8250000000000011e+00, 	 0.0000000000000000e+00   
9.8499999999999996e+00, 	 0.0000000000000000e+00   
9.8750000000000000e+00, 	 0.0000000000000000e+00   
9.8999999999999986e+00, 	 0.0000000000000000e+00   
9.9249999999999989e+00, 	 0.0000000000000000e+00   
9.9500000000000011e+00, 	 0.0000000000000000e+00   
9.9749999999999996e+00, 	 0.0000000000000000e+00   
1.0000000000000000e+01, 	 0.0000000000000000e+00   
1.0024999999999999e+01, 	 0.0000000000000000e+00   
1.0049999999999999e+01, 	 0.0000000000000000e+00   
1.0075000000000001e+01, 	 0.0000000000000000e+00   
1.0100000000000000e+01, 	 0.0000000000000000e+00   
1.0125000000000000e+01, 	 0.0000000000000000e+00   
1.0149999999999999e+01, 	 0.0000000000000000e+00   
1.0174999999999999e+01, 	 0.0000000000000000e+00   
1.0200000000000001e+01, 	 0.0000000000000000e+00   
1.0225000000000000e+01, 	 0.0000000000000000e+00   
1.0250000000000000e+01, 	 0.0000000000000000e+00   
1.0274999999999999e+01, 	 0.0000000000000000e+00   
1.0299999999999999e+01, 	 0.0000000000000000e+00   
1.0325000000000001e+01, 	 0.0000000000000000e+00   
1.0350000000000000e+01, 	 0.0000000000000000e+00   
1.0375000000000000e+01, 	 0.0000000000000000e+00   
1.0399999999999999e+01, 	 0.0000000000000000e+00   
1.0424999999999999e+01, 	 0.0000000000000000e+00   
1.0450000000000001e+01, 	 0.0000000000000000e+00   
1.0475000000000000e+01, 	 0.0000000000000000e+00   
1.0500000000000000e+01, 	 0.0000000000000000e+00   
1.0524999999999999e+01, 	 0.0000000000000000e+00   
1.0549999999999999e+01, 	 0.0000000000000000e+00   
1.0575000000000001e+01, 	 0.0000000000000000e+00   
1.0600000000000000e+01, 	 0.0000000000000000e+00   
1.0625000000000000e+01, 	 0.0000000000000000e+00   
1.0649999999999999e+01, 	 0.0000000000000000e+00   
1.0674999999999999e+01, 	 0.0000000000000000e+00   
1.0700000000000001e+01, 	 0.0000000000000000e+00   
1.0725000000000000e+01, 	 0.0000000000000000e+00   
1.0750000000000000e+01, 	 0.0000000000000000e+00   
1.0774999999999999e+01, 	 0.0000000000000000e+00   
1.0799999999999999e+01, 	 0.0000000000000000e+00   
1.0825000000000001e+01, 	 0.0000000000000000e+00   
1.0850000000000000e+01, 	 0.0000000000000000e+00   
1.0875000000000000e+01, 	 0.0000000000000000e+00   
1.0899999999999999e+01, 	 0.0000000000000000e+00   
1.0924999999999999e+01, 	 0.0000000000000000e+00   
1.0950000000000001e+01, 	 0.0000000000000000e+00   
1.0975000000000000e+01, 	 0.0000000000000000e+00   
1.1000000000000000e+01, 	 0.0000000000000000e+00   
1.1024999999999999e+01, 	 0.0000000000000000e+00   
1.1049999999999999e+01, 	 0.0000000000000000e+00   
1.1075000000000001e+01, 	 0.0000000000000000e+00   
1.1100000000000000e+01, 	 0.0000000000000000e+00   
1.1125000000000000e+01, 	 0.0000000000000000e+00   
1.1149999999999999e+01, 	 0.0000000000000000e+00   
1.1174999999999999e+01, 	 0.0000000000000000e+00   
1.1200000000000001e+01, 	 0.0000000000000000e+00   
1.1225000000000000e+01, 	 0.0000000000000000e+00   
1.1250000000000000e+01, 	 0.0000000000000000e+00   
1.1274999999999999e+01, 	 0.0000000000000000e+00   
1.1299999999999999e+01, 	 0.0000000000000000e+00   
1.1325000000000001e+01, 	 0.0000000000000000e+00   
1.1350000000000000e+01, 	 0.0000000000000000e+00   
1.1375000000000000e+01, 	 0.0000000000000000e+00   
1.1399999999999999e+01, 	 0.0000000000000000e+00   
1.1424999999999999e+01, 	 0.0000000000000000e+00   
1.1450000000000001e+01, 	 0.0000000000000000e+00   
1.1475000000000000e+01, 	 0.0000000000000000e+00   
1.1500000000000000e+01, 	 0.0000000000000000e+00   
1.1524999999999999e+01, 	 0.0000000000000000e+00   
1.1549999999999999e+01, 	 0.0000000000000000e+00   
1.1575000000000001e+01, 	 0.0000000000000000e+00   
1.1600000000000000e+01, 	 0.0000000000000000e+00   
1.1625000000000000e+01, 	 0.0000000000000000e+00   
1.1649999999999999e+01, 	 0.0000000000000000e+00   
1.1674999999999999e+01, 	 0.0000000000000000e+00   
1.1700000000000001e+01, 	 0.0000000000000000e+00   
1.1725000000000000e+01, 	 0.0000000000000000e+00   
1.1750000000000000e+01, 	 0.0000000000000000e+00   
1.1774999999999999e+01, 	 0.0000000000000000e+00   
1.1799999999999999e+01, 	 0.0000000000000000e+00   
1.1825000000000001e+01, 	 0.0000000000000000e+00   
1.1850000000000000e+01, 	 0.0000000000000000e+00   
1.1875000000000000e+01, 	 0.0000000000000000e+00   
1.1899999999999999e+01, 	 0.0000000000000000e+00   
1.1924999999999999e+01, 	 0.0000000000000000e+00   
1.1950000000000001e+01, 	 0.0000000000000000e+00   
1.1975000000000000e+01, 	 0.0000000000000000e+00   
1.2000000000000000e+01, 	 0.0000000000000000e+00   
1.2024999999999999e+01, 	 0.0000000000000000e+00   
1.2049999999999999e+01, 	 0.0000000000000000e+00   
1.2075000000000001e+01, 	 0.0000000000000000e+00   
1.2100000000000000e+01, 	 0.0000000000000000e+00   
1.2125000000000000e+01, 	 0.0000000000000000e+00   
1.2149999999999999e+01, 	 0.0000000000000000e+00   
1.2174999999999999e+01, 	 0.0000000000000000e+00   
1.2200000000000001e+01, 	 0.0000000000000000e+00   
1.2225000000000000e+01, 	 0.0000000000000000e+00   
1.2250000000000000e+01, 	 0.0000000000000000e+00   
1.2274999999999999e+01, 	 0.0000000000000000e+00   
1.2299999999999999e+01, 	 0.0000000000000000e+00   
1.2325000000000001e+01, 	 0.0000000000000000e+00   
1.2350000000000000e+01, 	 0.0000000000000000e+00   
1.2375000000000000e+01, 	 0.0000000000000000e+00   
1.2399999999999999e+01, 	 0.0000000000000000e+00   
1.2424999999999999e+01, 	 0.0000000000000000e+00   
1.2450000000000001e+01, 	 0.0000000000000000e+00   
1.2475000000000000e+01, 	 0.0000000000000000e+00   
1.2500000000000000e+01, 	 0.0000000000000000e+00   
1.2524999999999999e+01, 	 0.0000000000000000e+00   
1.2549999999999999e+01, 	 0.0000000000000000e+00   
1.2575000000000001e+01, 	 0.0000000000000000e+00   
1.2600000000000000e+01, 	 0.0000000000000000e+00   
1.2625000000000000e+01, 	 0.0000000000000000e+00   
1.2649999999999999e+01, 	 0.0000000000000000e+00   
1.2674999999999999e+01, 	 0.0000000000000000e+00   
1.2700000000000001e+01, 	 0.0000000000000000e+00   
1.2725000000000000e+01, 	 0.0000000000000000e+00   
1.2750000000000000e+01, 	 0.0000000000000000e+00   
1.2774999999999999e+01, 	 0.0000000000000000e+00   
1.2799999999999999e+01, 	 0.0000000000000000e+00   
1.2825000000000001e+01, 	 0.0000000000000000e+00   
1.2850000000000000e+01, 	 0.0000000000000000e+00   
1.2875000000000000e+01, 	 0.0000000000000000e+00   
1.2899999999999999e+01, 	 0.0000000000000000e+00   
1.2924999999999999e+01, 	 0.0000000000000000e+00   
1.2950000000000001e+01, 	 0.0000000000000000e+00   
1.2975000000000000e+01, 	 0.0000000000000000e+00   
1.3000000000000000e+01, 	 0.0000000000000000e+00   
1.3024999999999999e+01, 	 0.0000000000000000e+00   
1.3049999999999999e+01, 	 0.0000000000000000e+00   
1.3075000000000001e+01, 	 0.0000000000000000e+00   
1.3100000000000000e+01, 	 0.0000000000000000e+00   
1.3125000000000000e+01, 	 0.0000000000000000e+00   
1.3149999999999999e+01, 	 0.0000000000000000e+00   
1.3174999999999999e+01, 	 0.0000000000000000e+00   
1.3200000000000001e+01, 	 0.0000000000000000e+00   
1.3225000000000000e+01, 	 0.0000000000000000e+00   
1.3250000000000000e+01, 	 0.0000000000000000e+00   
1.3274999999999999e+01, 	 0.0000000000000000e+00   
1.3299999999999999e+01, 	 0.0000000000000000e+00   
1.3325000000000001e+01, 	 0.0000000000000000e+00   
1.3350000000000000e+01, 	 0.0000000000000000e+00   
1.3375000000000000e+01, 	 0.0000000000000000e+00   
1.3399999999999999e+01, 	 0.0000000000000000e+00   
1.3424999999999999e+01, 	 0.0000000000000000e+00   
1.3450000000000001e+01, 	 0.0000000000000000e+00   
1.3475000000000000e+01, 	 0.0000000000000000e+00   
1.3500000000000000e+01, 	 0.0000000000000000e+00   
1.3524999999999999e+01, 	 0.0000000000000000e+00   
1.3549999999999999e+01, 	 0.0000000000000000e+00   
1.3575000000000001e+01, 	 0.0000000000000000e+00   
1.3600000000000000e+01, 	 0.0000000000000000e+00   
1.3625000000000000e+01, 	 0.0000000000000000e+00   
1.3649999999999999e+01, 	 0.0000000000000000e+00   
1.3674999999999999e+01, 	 0.0000000000000000e+00   
1.3700000000000001e+01, 	 0.0000000000000000e+00   
1.3725000000000000e+01, 	 0.0000000000000000e+00   
1.3750000000000000e+01, 	 0.0000000000000000e+00   
1.3774999999999999e+01, 	 0.0000000000000000e+00   
1.3799999999999999e+01, 	 0.0000000000000000e+00   
1.3825000000000001e+01, 	 0.0000000000000000e+00   
1.3850000000000000e+01, 	 0.0000000000000000e+00   
1.3875000000000000e+01, 	 0.0000000000000000e+00   
1.3899999999999999e+01, 	 0.0000000000000000e+00   
1.3924999999999999e+01, 	 0.0000000000000000e+00   
1.3950000000000001e+01, 	 0.0000000000000000e+00   
1.3975000000000000e+01, 	 0.0000000000000000e+00   
1.4000000000000000e+01, 	 0.0000000000000000e+00   
1.4024999999999999e+01, 	 0.0000000000000000e+00   
1.4049999999999999e+01, 	 0.0000000000000000e+00   
1.4075000000000001e+01, 	 0.0000000000000000e+00   
1.4100000000000000e+01, 	 0.0000000000000000e+00   
0.0000000000000000e+00, 	 1.5807678328808489e-02   
2.4999999999999998e-02, 	 1.5806255167604224e-02   
4.9999999999999996e-02, 	 1.5802009502588976e-02   
7.4999999999999997e-02, 	 1.5794977061659103e-02   
9.9999999999999992e-02, 	 1.5785193572710930e-02   
1.2500000000000000e-01, 	 1.5772694763640807e-02   
1.4999999999999999e-01, 	 1.5757516362345077e-02   
1.7500000000000002e-01, 	 1.5739694096720078e-02   
1.9999999999999998e-01, 	 1.5719263694662151e-02   